 Gaussian 09, Revision C.01,
 Gaussian 09:  EM64L-G09RevC.01 23-Sep-2011

 ----------------------------------------------------------------------
 #MP2/aug-cc-pVTZ Geom=Check SCF=Tight Pop=MK IOp(6/33=2,6/42=6,6/43=20
 ) Guess=Read Density=Current
 ----------------------------------------------------------------------

 -------
 PLP esp
 -------
 Structure from the checkpoint file:  PLP_ideal_opt_esp.chk
 Charge = -2 Multiplicity = 1

                         Standard orientation:
 ---------------------------------------------------------------------
 Center     Atomic      Atomic             Coordinates (Angstroms)
 Number     Number       Type             X           Y           Z
 ---------------------------------------------------------------------
      1          7           0        1.924440   -2.062799   -0.000411
      2          6           0        3.004030   -1.267007    0.000056
      3          6           0        4.367254   -1.911621    0.000536
      4          6           0        2.877390    0.123907    0.000123
      5          8           0        4.005642    0.886628    0.000641
      6          6           0        1.586607    0.715656   -0.000318
      7          6           0        1.462791    2.156523   -0.000286
      8          8           0        2.436503    2.943596    0.000050
      9          6           0        0.450346   -0.141252   -0.000744
     10          6           0        0.698072   -1.515358   -0.000783
     11          6           0       -0.966598    0.379421   -0.000978
     12          8           0       -1.890603   -0.655767   -0.002159
     13         15           0       -3.576167   -0.078510    0.000413
     14          8           0       -3.635268    0.753431   -1.292100
     15          8           0       -4.359359   -1.387219   -0.000008
     16          8           0       -3.632006    0.750595    1.294982
     17          1           0        4.953711   -1.616799   -0.877503
     18          1           0        4.952512   -1.618094    0.879818
     19          1           0        4.242058   -2.995605   -0.000302
     20          1           0        3.690644    1.826522    0.000495
     21          1           0        0.446183    2.569626   -0.000627
     22          1           0       -0.155036   -2.182037   -0.001132
     23          1           0       -1.119014    1.030183    0.881251
     24          1           0       -1.118244    1.031709   -0.882207
 ---------------------------------------------------------------------

 SCF Done:  E(RHF) =  -1152.32092434     A.U. after   20 cycles
 E2 =    -0.3140552247D+01 EUMP2 =    -0.11554614765818D+04

 The electronic state is 1-A.
 Alpha  occ. eigenvalues --  -79.69370 -20.41606 -20.40251 -20.24865 -20.13661
 Alpha  occ. eigenvalues --  -20.13659 -20.13577 -15.40110 -11.18174 -11.14305
 Alpha  occ. eigenvalues --  -11.09367 -11.07457 -11.07024 -11.06857 -11.06381
 Alpha  occ. eigenvalues --  -11.03501  -7.20870  -5.10830  -5.10565  -5.10553
 Alpha  occ. eigenvalues --   -1.24616  -1.21280  -1.07834  -1.06250  -0.95460
 Alpha  occ. eigenvalues --   -0.92247  -0.88104  -0.87876  -0.87562  -0.79034
 Alpha  occ. eigenvalues --   -0.74877  -0.69245  -0.65489  -0.60374  -0.54138
 Alpha  occ. eigenvalues --   -0.51814  -0.50761  -0.47784  -0.44808  -0.42677
 Alpha  occ. eigenvalues --   -0.42060  -0.40414  -0.40298  -0.38274  -0.38234
 Alpha  occ. eigenvalues --   -0.37555  -0.36826  -0.32351  -0.31973  -0.29580
 Alpha  occ. eigenvalues --   -0.28540  -0.25056  -0.22386  -0.21445  -0.19913
 Alpha  occ. eigenvalues --   -0.19807  -0.15386  -0.12543  -0.11760  -0.11269
 Alpha  occ. eigenvalues --   -0.11154  -0.07814  -0.07368  -0.04452
 Alpha virt. eigenvalues --    0.14014   0.15937   0.16205   0.17120   0.19379
 Alpha virt. eigenvalues --    0.20273   0.21605   0.21690   0.22114   0.22401
 Alpha virt. eigenvalues --    0.23757   0.24112   0.24533   0.25304   0.26388

 Mulliken atomic charges:
              1
     1  N   -0.725145
     2  C    0.433891
     3  C   -1.055485
     4  C   -0.062154
     5  O   -0.877217
     6  C    0.987285
     7  C   -0.419214
     8  O   -0.819806
     9  C    1.273276
    10  C   -0.823356
    11  C   -0.467508
    12  O   -0.598416
    13  P    1.053165
    14  O   -0.930041
    15  O   -0.965904
    16  O   -0.929910
    17  H    0.302688
    18  H    0.302654
    19  H    0.283963
    20  H    0.170310
    21  H    0.637182
    22  H    0.660989
    23  H    0.284767
    24  H    0.283987
 Sum of Mulliken atomic charges =  -2.00000

 Dipole moment (field-independent basis, Debye):
    X=             25.7419    Y=              1.2240    Z=             -0.0051  Tot=             25.7710
 Quadrupole moment (field-independent basis, Debye-Ang):
   XX=           -255.3301   YY=           -132.3398   ZZ=           -120.2222
   XY=             -6.3391   XZ=              0.0067   YZ=              0.0004

 Normal termination of Gaussian 09 at Mon Apr  3 02:00:35 2023.
