 Gaussian 09, Revision C.01,
 Gaussian 09:  EM64L-G09RevC.01 23-Sep-2011

 ------------------------
 #B3LYP/6-311++G(d,p) Opt
 ------------------------

 99/9=1/99;
 -------
 PLP opt
 -------
 Charge = -2 Multiplicity = 1

 SCF Done:  E(RB3LYP) =  -1157.39517388     A.U. after   29 cycles
 SCF Done:  E(RB3LYP) =  -1157.42654838     A.U. after   23 cycles
 SCF Done:  E(RB3LYP) =  -1157.43953593     A.U. after   26 cycles
 SCF Done:  E(RB3LYP) =  -1157.44659204     A.U. after   23 cycles
 SCF Done:  E(RB3LYP) =  -1157.45564630     A.U. after   28 cycles
 SCF Done:  E(RB3LYP) =  -1157.46025746     A.U. after   24 cycles
 SCF Done:  E(RB3LYP) =  -1157.46056212     A.U. after   20 cycles
 SCF Done:  E(RB3LYP) =  -1157.46508252     A.U. after   26 cycles
 SCF Done:  E(RB3LYP) =  -1157.46557338     A.U. after   20 cycles
 SCF Done:  E(RB3LYP) =  -1157.46572037     A.U. after   21 cycles
 SCF Done:  E(RB3LYP) =  -1157.46582538     A.U. after   19 cycles
 SCF Done:  E(RB3LYP) =  -1157.46589047     A.U. after   20 cycles
 SCF Done:  E(RB3LYP) =  -1157.46594756     A.U. after   23 cycles
 SCF Done:  E(RB3LYP) =  -1157.46597182     A.U. after   22 cycles
 SCF Done:  E(RB3LYP) =  -1157.46599657     A.U. after   19 cycles
 SCF Done:  E(RB3LYP) =  -1157.46603590     A.U. after   21 cycles
 SCF Done:  E(RB3LYP) =  -1157.46605434     A.U. after   20 cycles
 SCF Done:  E(RB3LYP) =  -1157.46605773     A.U. after   19 cycles
 SCF Done:  E(RB3LYP) =  -1157.46605819     A.U. after   19 cycles
 SCF Done:  E(RB3LYP) =  -1157.46605827     A.U. after   15 cycles
 Optimization completed.
    -- Stationary point found.

                         Standard orientation:
 ---------------------------------------------------------------------
 Center     Atomic      Atomic             Coordinates (Angstroms)
 Number     Number       Type             X           Y           Z
 ---------------------------------------------------------------------
      1          7           0        1.924440   -2.062799   -0.000411
      2          6           0        3.004030   -1.267007    0.000056
      3          6           0        4.367254   -1.911621    0.000536
      4          6           0        2.877390    0.123907    0.000123
      5          8           0        4.005642    0.886628    0.000641
      6          6           0        1.586607    0.715656   -0.000318
      7          6           0        1.462791    2.156523   -0.000286
      8          8           0        2.436503    2.943596    0.000050
      9          6           0        0.450346   -0.141252   -0.000744
     10          6           0        0.698072   -1.515358   -0.000783
     11          6           0       -0.966598    0.379421   -0.000978
     12          8           0       -1.890603   -0.655767   -0.002159
     13         15           0       -3.576167   -0.078510    0.000413
     14          8           0       -3.635268    0.753431   -1.292100
     15          8           0       -4.359359   -1.387219   -0.000008
     16          8           0       -3.632006    0.750595    1.294982
     17          1           0        4.953711   -1.616799   -0.877503
     18          1           0        4.952512   -1.618094    0.879818
     19          1           0        4.242058   -2.995605   -0.000302
     20          1           0        3.690644    1.826522    0.000495
     21          1           0        0.446183    2.569626   -0.000627
     22          1           0       -0.155036   -2.182037   -0.001132
     23          1           0       -1.119014    1.030183    0.881251
     24          1           0       -1.118244    1.031709   -0.882207
 ---------------------------------------------------------------------

 The electronic state is 1-A.
 Alpha  occ. eigenvalues --  -76.82326 -18.96792 -18.94189 -18.82978 -18.75293
 Alpha  occ. eigenvalues --  -18.75210 -18.75208 -14.12099 -10.07316 -10.05733
 Alpha  occ. eigenvalues --  -10.01981  -9.99991  -9.99941  -9.99129  -9.99030
 Alpha  occ. eigenvalues --   -9.97516  -6.30309  -4.46735  -4.46366  -4.46358
 Alpha  occ. eigenvalues --   -0.88859  -0.85292  -0.75157  -0.74218  -0.66760
 Alpha  occ. eigenvalues --   -0.62291  -0.60059  -0.59739  -0.59304  -0.52575
 Alpha  occ. eigenvalues --   -0.48928  -0.44928  -0.42351  -0.37856  -0.33228
 Alpha  occ. eigenvalues --   -0.32438  -0.30295  -0.26957  -0.26898  -0.24545
 Alpha  occ. eigenvalues --   -0.23618  -0.23477  -0.22024  -0.21367  -0.21179
 Alpha  occ. eigenvalues --   -0.20936  -0.19900  -0.16650  -0.16278  -0.14198
 Alpha  occ. eigenvalues --   -0.09617  -0.08938  -0.08742  -0.07648  -0.06720
 Alpha  occ. eigenvalues --   -0.05251  -0.04156  -0.00222   0.00723   0.01309
 Alpha  occ. eigenvalues --    0.01339   0.04234   0.05007   0.08001
 Alpha virt. eigenvalues --    0.10085   0.13295   0.16116   0.16817   0.17808
 Alpha virt. eigenvalues --    0.19271   0.19460   0.19619   0.20644   0.22152
 Alpha virt. eigenvalues --    0.22872   0.22956   0.23745   0.23959   0.25057

 Mulliken atomic charges:
              1
     1  N    0.004762
     2  C   -0.566656
     3  C   -0.488918
     4  C    0.343497
     5  O   -0.349590
     6  C    0.623678
     7  C   -0.177664
     8  O   -0.391386
     9  C   -0.038890
    10  C   -0.242991
    11  C   -0.867939
    12  O   -0.305178
    13  P    0.647073
    14  O   -0.605008
    15  O   -0.519316
    16  O   -0.605220
    17  H    0.146012
    18  H    0.145978
    19  H    0.146142
    20  H    0.332137
    21  H    0.217345
    22  H    0.254280
    23  H    0.149290
    24  H    0.148560
 Sum of Mulliken atomic charges =  -2.00000

 Dipole moment (field-independent basis, Debye):
    X=             20.6214    Y=              0.4189    Z=             -0.0039  Tot=             20.6256
 Quadrupole moment (field-independent basis, Debye-Ang):
   XX=           -246.8789   YY=           -136.3805   ZZ=           -118.5091
   XY=             -7.9042   XZ=              0.0031   YZ=             -0.0003

 Normal termination of Gaussian 09 at Sun Apr  2 23:17:43 2023.
